5
	Energy:       0.0080392
F         -1.04639        1.25188        1.30418
S          0.37270        1.29800        0.35031
F          1.79165        1.34482       -0.60371
F         -0.22331        0.00609       -0.59921
F          1.31710        0.97482        1.73938
