7
	Energy:       0.0194467
F         -1.58528        1.00939        0.57147
S         -0.16730        1.06700       -0.38322
F          1.25061        1.12438       -1.33840
F          0.34599       -0.41975        0.28900
F         -0.97453        0.22293       -1.63295
F          0.64024        1.91100        0.86627
F         -0.68043        2.55398       -1.05508
